{
    1: {
        "name" : "Hydrogen",
        "symbol" : "H",
        "atomicNumber" : 1,
        "atomicWeight" : 1.00794,
        "groundStateConfig" : "1s",
        "ionizationEnergy" : 13.5984
    },
    2, {
        "name" : "Helium",
        "symbol" : "He",
        "atomicNumber" : 2,
        "atomicWeight" : 4.002602,
        "groundStateConfig" : "1s^2",
        "ionizationEnergy" : 24.5874
    },
    3, {
        "name" : "Lithium",
        "symbol" : "Li",
        "atomicNumber" : 3,
        "atomicWeight" : 6.941,
        "groundStateConfig" : "(1s^2)2s",
        "ionizationEnergy" : 5.3917
    },
    4, {
        "name" : "Beryllium",
        "symbol" : "Be",
        "atomicNumber" : 4,
        "atomicWeight" : 9.012182,
        "groundStateConfig" : "(1s^2)2s^2",
        "ionizationEnergy" : 9.3227
    },
    5, {
        "name" : "Boron",
        "symbol" : "B",
        "atomicNumber" : 5,
        "atomicWeight" : 10.811,
        "groundStateConfig" : "(1s^2)(2s^2)2p",
        "ionizationEnergy" : 8.2980
    },
    6, {
        "name" : "Carbon",
        "symbol" : "C",
        "atomicNumber" : 6,
        "atomicWeight" : 12.0107,
        "groundStateConfig" : "(1s^2)(2s^2)2p^2",
        "ionizationEnergy" : 11.2603
    },
    7, {
        "name" : "Nitrogen",
        "symbol" : "N",
        "atomicNumber" : 7,
        "atomicWeight" : 14.0067,
        "groundStateConfig" : "(1s^2)(2s^2)2p^3",
        "ionizationEnergy" : 14.5341
    },
    8, {
        "name" : "Oxygen",
        "symbol" : "O",
        "atomicNumber" : 8,
        "atomicWeight" : 15.9994,
        "groundStateConfig" : "(1s^2)(2s^2)2p^4",
        "ionizationEnergy" : 13.6181
    },
    9, {
        "name" : "Fluorine",
        "symbol" : "F",
        "atomicNumber" : 9,
        "atomicWeight" : 18.9984032,
        "groundStateConfig" : "(1s^2)(2s^2)2p^5",
        "ionizationEnergy" : 17.4228
    },
    10, {
        "name" : "Neon",
        "symbol" : "Ne",
        "atomicNumber" : 10,
        "atomicWeight" : 20.1797,
        "groundStateConfig" : "(1s^2)(2s^2)2p^6",
        "ionizationEnergy" : 21.5645
    },
    11, {
        "name" : "Sodium",
        "symbol" : "Na",
        "atomicNumber" : 11,
        "atomicWeight" : 22.98976928,
        "groundStateConfig" : "[Ne]3s",
        "ionizationEnergy" : 5.1391
    },
    12, {
        "name" : "Magnesium",
        "symbol" : "Mg",
        "atomicNumber" : 12,
        "atomicWeight" : 24.3050,
        "groundStateConfig" : "[Ne]3s^2",
        "ionizationEnergy" : 7.6462
    },
    13, {
        "name" : "Aluminum",
        "symbol" : "Al",
        "atomicNumber" : 13,
        "atomicWeight" : 26.9815386,
        "groundStateConfig" : "[Ne](3s^2)3p",
        "ionizationEnergy" : 5.9858
    },
    14, {
        "name" : "Silicon",
        "symbol" : "Si",
        "atomicNumber" : 14,
        "atomicWeight" : 28.0855,
        "groundStateConfig" : "[Ne](3s^2)3p^2",
        "ionizationEnergy" : 8.1517
    },
    15, {
        "name" : "Phosphorus",
        "symbol" : "P",
        "atomicNumber" : P,
        "atomicWeight" : 30.973762,
        "groundStateConfig" : "[Ne](3s^2)3p^3",
        "ionizationEnergy" : 10.4867
    },
    16, {
        "name" : "Sulfur",
        "symbol" : "S",
        "atomicNumber" : 16,
        "atomicWeight" : 32.065,
        "groundStateConfig" : "[Ne](3S^2)3p^4",
        "ionizationEnergy" : 10.3600
    },
    17, {
        "name" : "Chlorine",
        "symbol" : "Cl",
        "atomicNumber" : 17,
        "atomicWeight" : 35.453,
        "groundStateConfig" : "[Ne](3s^2)3p^5",
        "ionizationEnergy" : 12.9676
    },
    18, {
        "name" : "Argon",
        "symbol" : "Ar",
        "atomicNumber" : 18,
        "atomicWeight" : 39.948,
        "groundStateConfig" : "[Ne](3s^2)3p^6",
        "ionizationEnergy" : 15.7596
    },
    19, {
        "name" : "Potassium",
        "symbol" : "K",
        "atomicNumber" : 19,
        "atomicWeight" : 39.0983,
        "groundStateConfig" : "[Ar]4s",
        "ionizationEnergy" : 4.3407
    },
    20, {
        "name" : "Calcium",
        "symbol" : "Ca",
        "atomicNumber" : 20,
        "atomicWeight" : 40.078,
        "groundStateConfig" : "[Ar]4s^2",
        "ionizationEnergy" : 6.1132
    },
    21, {
        "name" : "Scandium",
        "symbol" : "Sc",
        "atomicNumber" : 21,
        "atomicWeight" : 44.955912,
        "groundStateConfig" : "[Ar]3d4s^2",
        "ionizationEnergy" : 6.5615
    },
    22, {
        "name" : "Titanium",
        "symbol" : "Ti",
        "atomicNumber" : 22,
        "atomicWeight" : 47.867,
        "groundStateConfig" : "[Ar](3d^2)4s^2",
        "ionizationEnergy" : 6.8281
    },
    23, {
        "name" : "Vanadium",
        "symbol" : "V",
        "atomicNumber" : 23,
        "atomicWeight" : 50.9415,
        "groundStateConfig" : "[Ar](3d^3)4s^2",
        "ionizationEnergy" : 6.7462
    },
    24, {
        "name" : "Chromium",
        "symbol" : "Cr",
        "atomicNumber" : 24,
        "atomicWeight" : 51.9961,
        "groundStateConfig" : "[Ar](3d^5)4s",
        "ionizationEnergy" : 6.7665
    },
    25, {
        "name" : "Manganese",
        "symbol" : "Mn",
        "atomicNumber" : 25,
        "atomicWeight" : 54.938045,
        "groundStateConfig" : "[Ar](3d^5)4s^2",
        "ionizationEnergy" : 7.4340
    },
    26, {
        "name" : "Iron",
        "symbol" : "Fe",
        "atomicNumber" : 26,
        "atomicWeight" : 55.845,
        "groundStateConfig" : "[Ar](3d^6)4s^2",
        "ionizationEnergy" : 7.9024
    },
    27, {
        "name" : "Cobalt",
        "symbol" : "Co",
        "atomicNumber" : 27,
        "atomicWeight" : 58.933195,
        "groundStateConfig" : "[Ar](3d^7)4s^2",
        "ionizationEnergy" : 7.8810
    },
    28, {
        "name" : "Nickel",
        "symbol" : "Ni",
        "atomicNumber" : 28,
        "atomicWeight" : 58.6934,
        "groundStateConfig" : "[Ar](3d^8)4s^2",
        "ionizationEnergy" : 7.6399
    },
    29, {
        "name" : "Copper",
        "symbol" : "Cu",
        "atomicNumber" : 29,
        "atomicWeight" : 63.546,
        "groundStateConfig" : "[Ar](3d^10)4s",
        "ionizationEnergy" : 7.7264
    },
    30, {
        "name" : "Zinc",
        "symbol" : "Zn",
        "atomicNumber" : 30,
        "atomicWeight" : 65.38,
        "groundStateConfig" : "[Ar](3d^10)4s^2",
        "ionizationEnergy" : 9.3942
    },
    31, {
        "name" : "Gallium",
        "symbol" : "Ga",
        "atomicNumber" : 31,
        "atomicWeight" : 69.723,
        "groundStateConfig" : "[Ar](3d^10)(4s^2)4p",
        "ionizationEnergy" : 5.9993
    },
    32, {
        "name" : "Germanium",
        "symbol" : "Ge",
        "atomicNumber" : 32,
        "atomicWeight" : 72.64,
        "groundStateConfig" : "[Ar](3d^10)(4s^2)4p^2",
        "ionizationEnergy" : 7.8994
    },
    33, {
        "name" : "Arsenic",
        "symbol" : "As",
        "atomicNumber" : 33,
        "atomicWeight" : 74.92160,
        "groundStateConfig" : "[Ar](3d^10)(4s^2)4p^3",
        "ionizationEnergy" : 9.7886
    },
    34, {
        "name" : "Selenium",
        "symbol" : "Se",
        "atomicNumber" : 34,
        "atomicWeight" : 78.96,
        "groundStateConfig" : "[Ar](3d^10)(4s^2)4p^4",
        "ionizationEnergy" : 9.7524
    },
    35, {
        "name" : "Bromine",
        "symbol" : "Br",
        "atomicNumber" : 79.904,
        "atomicWeight" : 35,
        "groundStateConfig" : "[Ar](3d^10)(4s^2)4p^5",
        "ionizationEnergy" : 11.8138
    },
    36, {
        "name" : "Krypton",
        "symbol" : "Kr",
        "atomicNumber" : 36,
        "atomicWeight" : 83.798,
        "groundStateConfig" : "[Ar](3d^10)(4s^2)4p^6",
        "ionizationEnergy" : 13.9996
    },
    37, {
        "name" : "Rubidium",
        "symbol" : "Rb",
        "atomicNumber" : 37,
        "atomicWeight" : 85.4678,
        "groundStateConfig" : "[Kr]5s",
        "ionizationEnergy" : 4.1771
    },
    38, {
        "name" : "Strontium",
        "symbol" : "Sr",
        "atomicNumber" : 38,
        "atomicWeight" : 87.62,
        "groundStateConfig" : "[Kr]5s^2",
        "ionizationEnergy" : 5.6949
    },
    39, {
        "name" : "Yttrium",
        "symbol" : "Y",
        "atomicNumber" : 39,
        "atomicWeight" : 88.90585,
        "groundStateConfig" : "[Kr]4d5^2",
        "ionizationEnergy" : 6.2173
    },
    40, {
        "name" : "Zirconium",
        "symbol" : "Zr",
        "atomicNumber" : 40,
        "atomicWeight" : 91.224,
        "groundStateConfig" : "[Kr](4d^2)4s^2",
        "ionizationEnergy" : 6.6339
    },
    41, {
        "name" : "Niobium",
        "symbol" : "Nb",
        "atomicNumber" : 41,
        "atomicWeight" : 92.90638,
        "groundStateConfig" : "[Kr](4d^4)5s",
        "ionizationEnergy" : 6.7589
    },
    42, {
        "name" : "Molybdenum",
        "symbol" : "Mo",
        "atomicNumber" : 42,
        "atomicWeight" : 95.96,
        "groundStateConfig" : "[Kr](4d^5)5s",
        "ionizationEnergy" : 7.0924
    },
    43, {
        "name" : "Technetium",
        "symbol" : "Tc",
        "atomicNumber" : 43,
        "atomicWeight" : (98),
        "groundStateConfig" : "[Kr](4d^5)5s^2",
        "ionizationEnergy" : 7.28
    },
    44, {
        "name" : "Ruthenium",
        "symbol" : "Ru",
        "atomicNumber" : 44,
        "atomicWeight" : 101.07,
        "groundStateConfig" : "[Kr](4d^7)5s",
        "ionizationEnergy" : 7.3605
    },
    45, {
        "name" : "Rhodium",
        "symbol" : "Rh",
        "atomicNumber" : 45,
        "atomicWeight" : 102.90550,
        "groundStateConfig" : "[Kr](4d^8)5s",
        "ionizationEnergy" : 7.4589
    },
    46, {
        "name" : "Palladium",
        "symbol" : "Pd",
        "atomicNumber" : 46,
        "atomicWeight" : 106.42,
        "groundStateConfig" : "[Kr]4d^10",
        "ionizationEnergy" : 8.3369
    },
    47, {
        "name" : "Silver",
        "symbol" : "Ag",
        "atomicNumber" : 47,
        "atomicWeight" : 107.8682,
        "groundStateConfig" : "[Kr](4d^10)5s",
        "ionizationEnergy" : 7.5762
    },
    48, {
        "name" : "Cadmium",
        "symbol" : "Cd",
        "atomicNumber" : 48,
        "atomicWeight" : 112.411,
        "groundStateConfig" : "[Kr](4d^10)5s^2",
        "ionizationEnergy" : 8.9938
    },
    49, {
        "name" : "Indium",
        "symbol" : "In",
        "atomicNumber" : 49,
        "atomicWeight" : 114.818,
        "groundStateConfig" : "[Kr](4d^10)(5s^2)5p",
        "ionizationEnergy" : 5.7864
    },
    50, {
        "name" : "Tin",
        "symbol" : "Sn",
        "atomicNumber" : 50,
        "atomicWeight" : 188.710,
        "groundStateConfig" : "[Kr](4d^10)(5s^2)5p^2",
        "ionizationEnergy" : 7.3439
    },
    51, {
        "name" : "Antimony",
        "symbol" : "Sb",
        "atomicNumber" : 51,
        "atomicWeight" : 121.760,
        "groundStateConfig" : "[Kr](4d^10)(5s^2)5p^3",
        "ionizationEnergy" : 8.6084
    },
    52, {
        "name" : "Tellurium",
        "symbol" : "Te",
        "atomicNumber" : 52,
        "atomicWeight" : 127.60,
        "groundStateConfig" : "[Kr](4d^10)(5s^2)5p^4",
        "ionizationEnergy" : 9.0096
    },
    53, {
        "name" : "Iodine",
        "symbol" : "I",
        "atomicNumber" : 53,
        "atomicWeight" : 126.90447,
        "groundStateConfig" : "[Kr](4d^10)(5s^2)5p^5",
        "ionizationEnergy" : 10.4513
    },
    54, {
        "name" : "Xenon",
        "symbol" : "Xe",
        "atomicNumber" : 54,
        "atomicWeight" : 131.293,
        "groundStateConfig" : "[Kr](4d^10)(5s^2)5p^6",
        "ionizationEnergy" : 12.1298
    },
    55, {
        "name" : "Cesium",
        "symbol" : "Cs",
        "atomicNumber" : 55,
        "atomicWeight" : 132.9054519,
        "groundStateConfig" : "[Xe]6s",
        "ionizationEnergy" : 3.8939
    },
    56, {
        "name" : "Barium",
        "symbol" : "Ba",
        "atomicNumber" : 56,
        "atomicWeight" : 137.327,
        "groundStateConfig" : "[Xe]6s^2",
        "ionizationEnergy" : 5.2117
    },
    57, {
        "name" : "Lanthanum",
        "symbol" : "La",
        "atomicNumber" : 57,
        "atomicWeight" : 138.90547,
        "groundStateConfig" : "[Xe]5d6s^2",
        "ionizationEnergy" : 5.5769
    },
    58, {
        "name" : "Cerium",
        "symbol" : "Ce",
        "atomicNumber" : 58,
        "atomicWeight" : 140.116,
        "groundStateConfig" : "[Xe]4f5d6s^2",
        "ionizationEnergy" : 5.5387
    },
    59, {
        "name" : "Praseodymium",
        "symbol" : "Pr",
        "atomicNumber" : 59,
        "atomicWeight" : 140.90765,
        "groundStateConfig" : "[Xe](4f^3)6s^2",
        "ionizationEnergy" : 5.473
    },
    60, {
        "name" : "Neodymium",
        "symbol" : "Nd",
        "atomicNumber" : 60,
        "atomicWeight" : 144.242,
        "groundStateConfig" : "[Xe](4f^4)6s^2",
        "ionizationEnergy" : 5.5250
    },
    61, {
        "name" : "Promethium",
        "symbol" : "Pm",
        "atomicNumber" : 61,
        "atomicWeight" : (145),
        "groundStateConfig" : "[Xe](4f^5)6s^2",
        "ionizationEnergy" : 5.582
    },
    62, {
        "name" : "Samarium",
        "symbol" : "Sm",
        "atomicNumber" : 62,
        "atomicWeight" : 150.36,
        "groundStateConfig" : "[Xe](4f^5)6s^2",
        "ionizationEnergy" : 5.6437
    },
    63, {
        "name" : "Europium",
        "symbol" : "Eu",
        "atomicNumber" : 63,
        "atomicWeight" : 151.964,
        "groundStateConfig" : "[Xe](4f^7)6s^2",
        "ionizationEnergy" : 5.6704
    },
    64, {
        "name" : "Gadolinium",
        "symbol" : "Gd",
        "atomicNumber" : 64,
        "atomicWeight" : 157.25,
        "groundStateConfig" : "[Xe](4f^7)5d6s^2",
        "ionizationEnergy" : 6.1498
    },
    65, {
        "name" : "Terbium",
        "symbol" : "Tb",
        "atomicNumber" : 65,
        "atomicWeight" : 158.92535,
        "groundStateConfig" : "[Xe](4f^9)6s^2",
        "ionizationEnergy" : 5.8638
    },
    66, {
        "name" : "Dysprosium",
        "symbol" : "Dy",
        "atomicNumber" : 66,
        "atomicWeight" : 162.500,
        "groundStateConfig" : "[Xe](4f^10)6s^2",
        "ionizationEnergy" : 5.9389
    },
    67, {
        "name" : "Holmium",
        "symbol" : "Ho",
        "atomicNumber" : 67,
        "atomicWeight" : 164.93032,
        "groundStateConfig" : "[Xe](4f^11)6s^2",
        "ionizationEnergy" : 
    },
    68, {
        "name" : "Erbium",
        "symbol" : "Er",
        "atomicNumber" : 68,
        "atomicWeight" : 167.259,
        "groundStateConfig" : "[Xe](4f^12)6s^2",
        "ionizationEnergy" : 6.1077
    },
    69, {
        "name" : "Thulium",
        "symbol" : "Tm",
        "atomicNumber" : 69,
        "atomicWeight" : 168.93421,
        "groundStateConfig" : "[Xe](4f^13)6s^2",
        "ionizationEnergy" : 6.1843
    },
    70, {
        "name" : "Ytterbium",
        "symbol" : "Yb",
        "atomicNumber" : 70,
        "atomicWeight" : 173.054,
        "groundStateConfig" : "[Xe](4f^14)6s^2",
        "ionizationEnergy" : 6.2542
    },
    71, {
        "name" : "Lutetium",
        "symbol" : "Lu",
        "atomicNumber" : 71,
        "atomicWeight" : 174.9668,
        "groundStateConfig" : "[Xe](4f^14)5d6s^2",
        "ionizationEnergy" : 5.4259
    },
    72, {
        "name" : "Hafnium",
        "symbol" : "Hf",
        "atomicNumber" : 72,
        "atomicWeight" : 178.49,
        "groundStateConfig" : "[Xe](4f^14)(5d^2)6s^2",
        "ionizationEnergy" : 6.8251
    },
    73, {
        "name" : "Tantalum",
        "symbol" : "Ta",
        "atomicNumber" : 73,
        "atomicWeight" : 180.94788,
        "groundStateConfig" : "[Xe](4f^14)(5d^3)6s^2",
        "ionizationEnergy" : 7.5496
    },
    74, {
        "name" : "Tungsten",
        "symbol" : "W",
        "atomicNumber" : 74,
        "atomicWeight" : 183.84,
        "groundStateConfig" : "[Xe](4f^14)(5d^4)6s^2",
        "ionizationEnergy" : 7.8640
    },
    75, {
        "name" : "Rhenium",
        "symbol" : "Re",
        "atomicNumber" : 75,
        "atomicWeight" : 186.207,
        "groundStateConfig" : "[Xe](4f^14)(5d^5)6s^2",
        "ionizationEnergy" : 7.8335
    },
    76, {
        "name" : "Osmium",
        "symbol" : "Os",
        "atomicNumber" : 76,
        "atomicWeight" : 190.23,
        "groundStateConfig" : "[Xe](4f^14)(5d^6)6s^2",
        "ionizationEnergy" : 8.4382
    },
    77, {
        "name" : "Iridium",
        "symbol" : "Ir",
        "atomicNumber" : 77,
        "atomicWeight" : 192.217,
        "groundStateConfig" : "[Xe](4f^14)(5d^7)6s^2",
        "ionizationEnergy" : 8.9670
    },
    78, {
        "name" : "Platinum",
        "symbol" : "Pt",
        "atomicNumber" : 78,
        "atomicWeight" : 195.084,
        "groundStateConfig" : "[Xe](4f^14)(5d^9)6s",
        "ionizationEnergy" : 8.9588
    },
    79, {
        "name" : "Gold",
        "symbol" : "Au",
        "atomicNumber" : 79,
        "atomicWeight" : 196.966569,
        "groundStateConfig" : "[Xe](4f^14)(5d^10)6s",
        "ionizationEnergy" : 9.2255
    },
    80, {
        "name" : "Mercury",
        "symbol" : "Hg",
        "atomicNumber" : 80,
        "atomicWeight" : 200.59,
        "groundStateConfig" : "[Xe](4f^14)(5d^10)6s^2",
        "ionizationEnergy" : 10.4375
    },
    81, {
        "name" : "Thallium",
        "symbol" : "Tl",
        "atomicNumber" : 81,
        "atomicWeight" : 204.3833,
        "groundStateConfig" : "[Hg]6p",
        "ionizationEnergy" : 6.1082
    },
    82, {
        "name" : "Lead",
        "symbol" : "Pb",
        "atomicNumber" : 82,
        "atomicWeight" : 207.2,
        "groundStateConfig" : "[Hg]6p^2",
        "ionizationEnergy" : 7.4167
    },
    83, {
        "name" : "Bismuth",
        "symbol" : "Bi",
        "atomicNumber" : 83,
        "atomicWeight" : 208.98040,
        "groundStateConfig" : "[Hg]6p^3",
        "ionizationEnergy" : 7.2855
    },
    84, {
        "name" : "Polonium",
        "symbol" : "Po",
        "atomicNumber" : 84,
        "atomicWeight" : (209),
        "groundStateConfig" : "[Hg]6p^4",
        "ionizationEnergy" : 8.414
    },
    85, {
        "name" : "Astatine",
        "symbol" : "At",
        "atomicNumber" : 85,
        "atomicWeight" : (210),
        "groundStateConfig" : "[Hg]6p^5",
        "ionizationEnergy" : ""
    },
    86, {
        "name" : "Radon",
        "symbol" : "Rn",
        "atomicNumber" : 86,
        "atomicWeight" : (222),
        "groundStateConfig" : "[Hg]6p^6",
        "ionizationEnergy" : 10.7485
    },
    87, {
        "name" : "Francium",
        "symbol" : "Fr",
        "atomicNumber" : 87,
        "atomicWeight" : (223),
        "groundStateConfig" : "[Rn]7s",
        "ionizationEnergy" : 4.0727
    },
    88, {
        "name" : "Radium",
        "symbol" : "Ra",
        "atomicNumber" : 88,
        "atomicWeight" : (226),
        "groundStateConfig" : "[Rn]7s^2",
        "ionizationEnergy" : 5.2784
    },
    89, {
        "name" : "Actinium",
        "symbol" : "Ac",
        "atomicNumber" : 89,
        "atomicWeight" : (227),
        "groundStateConfig" : "[Rn]6d7s^2",
        "ionizationEnergy" : 5.3807
    },
    90, {
        "name" : "Thorium",
        "symbol" : "Th",
        "atomicNumber" : 90,
        "atomicWeight" : 232.03806,
        "groundStateConfig" : "[Rn](6d^2)7s^2",
        "ionizationEnergy" : 6.3067
    },
    91, {
        "name" : "Protactinium",
        "symbol" : "Pa",
        "atomicNumber" : 91,
        "atomicWeight" : 231.03588,
        "groundStateConfig" : "[Rn](5f^2)6d7s^2",
        "ionizationEnergy" : 5.89
    },
    92, {
        "name" : "Uranium",
        "symbol" : "U",
        "atomicNumber" : 92,
        "atomicWeight" : 238.02891,
        "groundStateConfig" : "[Rn](5f^3)6d7s^2",
        "ionizationEnergy" : 6.1939
    },
    93, {
        "name" : "Neptunium",
        "symbol" : "Np",
        "atomicNumber" : 93,
        "atomicWeight" : (237),
        "groundStateConfig" : "[Rn](5f^4)6d7s^2",
        "ionizationEnergy" : 6.2657
    },
    94, {
        "name" : "Plutonium",
        "symbol" : "Pu",
        "atomicNumber" : 94,
        "atomicWeight" : (244),
        "groundStateConfig" : "[Rn](5f^6)7s^2",
        "ionizationEnergy" : 6.0260
    },
    95, {
        "name" : "Americium",
        "symbol" : "Am",
        "atomicNumber" : 95,
        "atomicWeight" : (243),
        "groundStateConfig" : "[Rn](5f^7)7s^2",
        "ionizationEnergy" : 5.9738
    },
    96, {
        "name" : "Curium",
        "symbol" : "Cm",
        "atomicNumber" : 96,
        "atomicWeight" : (247),
        "groundStateConfig" : "[Rn](5f^7)6d7s^2",
        "ionizationEnergy" : 5.9914
    },
    97, {
        "name" : "Berkelium",
        "symbol" : "Bk",
        "atomicNumber" : 97,
        "atomicWeight" : (247),
        "groundStateConfig" : "[Rn](5f^9)7s^2",
        "ionizationEnergy" : 6.1979
    },
    98, {
        "name" : "Californium",
        "symbol" : "Cf",
        "atomicNumber" : 98,
        "atomicWeight" : (251),
        "groundStateConfig" : "[Rn](5f^10)7s^2",
        "ionizationEnergy" : 6.2817
    },
    99, {
        "name" : "Einsteinium",
        "symbol" : "Es",
        "atomicNumber" : 99,
        "atomicWeight" : (252),
        "groundStateConfig" : "[Rn](5f^11)7s^2",
        "ionizationEnergy" : 6.3676
    },
    100, {
        "name" : "Fermium",
        "symbol" : "Fm",
        "atomicNumber" : 100,
        "atomicWeight" : (257),
        "groundStateConfig" : "[Rn](5f^12)7s^2",
        "ionizationEnergy" : 6.50
    },
    101, {
        "name" : "Mendelevium",
        "symbol" : "Md",
        "atomicNumber" : 101,
        "atomicWeight" : (258),
        "groundStateConfig" : "[Rn](5f^13)7s^2",
        "ionizationEnergy" : 6.58
    },
    102, {
        "name" : "Nobelium",
        "symbol" : "No",
        "atomicNumber" : 102,
        "atomicWeight" : (259),
        "groundStateConfig" : "[Rn](5f^14)7s^2",
        "ionizationEnergy" : 6.65
    },
    103, {
        "name" : "Lawrencium",
        "symbol" : "Lr",
        "atomicNumber" : 103,
        "atomicWeight" : (262),
        "groundStateConfig" : "[Rn](5f^14)(7s^2)7p?",
        "ionizationEnergy" : 4.9
    },
    104, {
        "name" : "Rutherfordium",
        "symbol" : "Rf",
        "atomicNumber" : 104,
        "atomicWeight" : (265),
        "groundStateConfig" : "[Rn](5f^14)(6d^2)7s^2?",
        "ionizationEnergy" : 6.0
    },
    105, {
        "name" : "Dubnium",
        "symbol" : "Db",
        "atomicNumber" : 105,
        "atomicWeight" : (268),
        "groundStateConfig" : "",
        "ionizationEnergy" : 
    },
    106, {
        "name" : "Seaborgium",
        "symbol" : "Sg",
        "atomicNumber" : 106,
        "atomicWeight" : (271),
        "groundStateConfig" : "",
        "ionizationEnergy" : 
    },
    107, {
        "name" : "Bohrium",
        "symbol" : "Bh",
        "atomicNumber" : 107,
        "atomicWeight" : (272),
        "groundStateConfig" : "",
        "ionizationEnergy" : 
    },
    108, {
        "name" : "Hassium",
        "symbol" : "Hs",
        "atomicNumber" : 108,
        "atomicWeight" : (277),
        "groundStateConfig" : "",
        "ionizationEnergy" : 
    },
    109, {
        "name" : "Meitnerium",
        "symbol" : "Mt",
        "atomicNumber" : 109,
        "atomicWeight" : (276),
        "groundStateConfig" : "",
        "ionizationEnergy" : 
    },
    110, {
        "name" : "Darmstadtium",
        "symbol" : "Ds",
        "atomicNumber" : 110,
        "atomicWeight" : (281),
        "groundStateConfig" : "",
        "ionizationEnergy" : 
    },
    111, {
        "name" : "Roentgenium",
        "symbol" : "Rg",
        "atomicNumber" : 111,
        "atomicWeight" : (280),
        "groundStateConfig" : "",
        "ionizationEnergy" : 
    },
    112, {
        "name" : "Copernicium",
        "symbol" : "Cn",
        "atomicNumber" : 112,
        "atomicWeight" : (285),
        "groundStateConfig" : "",
        "ionizationEnergy" : 
    },
    113, {
        "name" : "Ununtrium",
        "symbol" : "Uut",
        "atomicNumber" : 113,
        "atomicWeight" : (284),
        "groundStateConfig" : "",
        "ionizationEnergy" : 
    },
    114, {
        "name" : "Ununquadium",
        "symbol" : "Uuq",
        "atomicNumber" : 114,
        "atomicWeight" : (289),
        "groundStateConfig" : "",
        "ionizationEnergy" : 
    },
    115, {
        "name" : "Ununpentium",
        "symbol" : "Uup",
        "atomicNumber" : 115,
        "atomicWeight" : (288),
        "groundStateConfig" : "",
        "ionizationEnergy" : 
    },
    116, {
        "name" : "Ununhexium",
        "symbol" : "Uuh",
        "atomicNumber" : 116,
        "atomicWeight" : (293),
        "groundStateConfig" : "",
        "ionizationEnergy" : 
    },
    117, {
        "name" : "Ununseptium",
        "symbol" : "Uus",
        "atomicNumber" : 117,
        "atomicWeight" : (294),
        "groundStateConfig" : "",
        "ionizationEnergy" : 
    },
    118, {
        "name" : "Ununoctium",
        "symbol" : "Uuo",
        "atomicNumber" : 118,
        "atomicWeight" : (294),
        "groundStateConfig" : "",
        "ionizationEnergy" : 
    },
